LAMMPS data file generated by OpenBabel

10 atoms
8 bonds
13 angles
6 dihedrals
0 impropers
5 atom types
3 bond types
5 angle types
2 dihedral types
0 improper types
  -2.98339    4.26410 xlo xhi
  -2.98339    4.26410 ylo yhi
  -2.98339    4.26410 zlo zhi



Masses

1 18.9984 # F
2 6.941 # Li
3 14.0067 # N
4 15.9994 # O
5 32.065 # S


Atoms

1       1    2    0.00000    1.34552    1.25345    1.99204 #  Li
2       2    3    0.00000    1.28361   -1.27482   -0.48257 #   N
3       2    5    0.00000    0.60950   -1.51402    0.92573 #   S
4       2    4   -0.82000    0.38241   -0.32359    1.76029 #   O
5       2    4   -0.82000   -0.47348   -2.48339    0.95174 #   O
6       2    1    0.00000    1.74916   -2.26295    1.75036 #   F
7       2    5    0.00000    2.50353   -0.29630   -0.28869 #   S
8       2    4   -0.82000    2.21448    0.99340    0.35472 #   O
9       2    4   -0.82000    3.76410   -0.89337    0.12031 #   O
10      2    1    0.00000    2.80829    0.14866   -1.78826 #   F


Bonds

1       2    3    2 #  S: N
2       3    3    4 #  S: O
3       3    3    5 #  S: O
4       1    3    6 #  S: F
5       2    7    2 #  S: N
6       3    7    8 #  S: O
7       3    7    9 #  S: O
8       1    7   10 #  S: F


Angles

1       5    7    2    3 #  S: N: S
2       3    4    3    2 #  O: S: N
3       3    5    3    2 #  O: S: N
4       1    6    3    2 #  F: S: N
5       4    5    3    4 #  O: S: O
6       2    6    3    4 #  F: S: O
7       2    6    3    5 #  F: S: O
8       3    8    7    2 #  O: S: N
9       3    9    7    2 #  O: S: N
10      1   10    7    2 #  F: S: N
11      4    9    7    8 #  O: S: O
12      2   10    7    8 #  F: S: O
13      2   10    7    9 #  F: S: O


Dihedrals

1       2    7    2    3    4 #  S: N: S: O
2       2    7    2    3    5 #  S: N: S: O
3       1    7    2    3    6 #  S: N: S: F
4       2    3    2    7    8 #  S: N: S: O
5       2    3    2    7    9 #  S: N: S: O
6       1    3    2    7   10 #  S: N: S: F