ITEM: TIMESTEP
0
ITEM: NUMBER OF ATOMS
2950
ITEM: BOX BOUNDS pp pp pp
-1.0000000000000000e+02 1.0000000000000000e+02
-1.0000000000000000e+02 1.0000000000000000e+02
-1.0000000000000000e+02 1.0000000000000000e+02
ITEM: ATOMS c_my_entropy
-23.8566
-23.7791
-23.2049
-22.7677
-22.3639
-23.5395
-22.3639
-23.7661
-23.9969
-23.9403
-22.797
-23.8236
-23.8236
nan
nan
nan
nan
nan
nan
nan
nan
nan
nan
nan
nan
nan
nan
nan
nan
nan
nan
nan
nan
nan
nan
nan
nan
nan
nan
nan
nan
nan
nan
-23.6086
-23.8566
-23.5106
-23.5952
-23.8566
nan
nan
nan
nan
nan
nan
-22.4934
-21.6009
-22.7852
-22.854
-22.3366
-22.6289
-21.8031
-21.9494
-23.2956
-22.4998
-21.9773
nan
nan
nan
nan
nan
nan
nan
nan
nan
nan
nan
nan
nan
nan
nan
nan
nan
nan
nan
nan
nan
nan
nan
nan
nan
nan
nan
nan
nan
nan
nan
nan
-22.803
-23.5759
-23.8947
-23.8947
-23.8947
-22.3933
nan
nan
nan
nan
nan
nan
-23.4465
-22.5651
nan
nan
nan
nan
nan
nan
nan
nan
nan
nan
nan
nan
-22.4946
-23.2956
-23.3727
-23.3727
-23.0377
nan
nan
nan
nan
nan
nan
nan
nan
nan
nan
nan
nan
nan
nan
nan
nan
nan
-23.7032
nan
nan
nan
nan
nan
nan
nan
nan
-23.2383
-23.8498
-23.9549
-23.6317
-23.8498
-24.0028
-22.3933
-23.7927
-23.1299
-23.8727
-23.4866
-23.7243
-23.9259
-23.7243
-22.6887
-22.2867
-22.2867
nan
nan
-22.8315
-23.8069
-23.6202
-23.5578
nan
nan
nan
nan
nan
nan
nan
nan
nan
nan
nan
nan
nan
nan
nan
nan
nan
nan
nan
nan
nan
nan
nan
nan
nan
nan
nan
nan
nan
nan
nan
nan
nan
nan
nan
nan
nan
nan
nan
nan
nan
nan
nan
nan
nan
nan
nan
nan
nan
nan
nan
nan
nan
-54.6345
nan
nan
nan
-50.4115
nan
-44.9079
nan
nan
nan
nan
nan
nan
nan
nan
nan
nan
nan
nan
nan
nan
nan
nan
nan
nan
-37.7885
nan
nan
nan
nan
nan
nan
nan
nan
nan
-24.3432
-24.0899
-24.1798
-24.2641
-23.6977
-24.1331
-22.8583
-23.2868
-24.0899
-24.1121
-24.5359
-24.3188
-23.3218
-24.3145
-23.895
-22.8583
nan
nan
nan
nan
nan
nan
-23.7867
-23.4214
-23.5223
-22.7178
-23.7867
-23.4743
-23.6979
-23.7867
nan
nan
-35.4377
-32.7489
-34.9659
nan
nan
nan
-56.0417
-52.3315
nan
nan
nan
nan
nan
nan
nan
nan
nan
nan
nan
nan
nan
nan
nan
nan
nan
nan
nan
nan
nan
nan
nan
nan
nan
nan
nan
nan
-24.0825
-23.8489
-24.2696
-23.6099
-24.0161
-23.0739
-24.0825
-23.0496
-24.1086
-24.1879
-24.0552
-23.8366
-22.6317
-22.6317
-23.8277
-23.9175
-23.469
-23.9938
-24.3145
-24.0361
-23.7161
-23.1315
-23.4964
-23.7411
-23.7411
-23.888
-23.4298
-22.3064
-23.8211
-22.7362
-23.8211
-23.7328
-23.9459
-22.7023
-23.5101
-22.3064
-23.5794
-23.8211
-23.6209
-23.2698
-23.664
-22.9115
-23.9476
-23.8996
-22.4739
-23.7307
-24.1335
-23.9476
-23.6419
-23.865
-23.3049
-24.0181
-23.694
-23.6568
-24.0813
-22.4739
-22.8815
-23.9193
nan
nan
nan
nan
nan
nan
nan
nan
nan
nan
-22.4985
-23.6638
-23.9915
-23.8274
-24.0626
-23.6638
-22.914
-22.4985
-22.9513
-23.7619
-23.6899
-24.0095
-24.1856
-23.9805
-23.9805
-23.7642
-24.2596
-23.5511
-24.0133
-24.2915
-23.2012
-22.7708
-22.7708
-24.2466
-23.9653
-23.228
-24.2596
-23.5378
-24.1516
-24.0195
-23.5301
-24.1972
-23.9255
-23.1288
-23.1617
-23.9253
-22.7075
-24.3612
-23.7075
-24.1678
-22.7075
-23.9236
-24.1096
-24.1678
nan
nan
nan
nan
nan
nan
nan
nan
nan
nan
nan
nan
nan
nan
nan
nan
nan
nan
nan
nan
nan
nan
nan
-24.1027
-24.1027
-24.2886
-24.2482
-24.0636
nan
nan
nan
nan
nan
nan
nan
nan
nan
nan
nan
nan
nan
nan
nan
nan
nan
nan
nan
nan
nan
nan
nan
nan
nan
nan
nan
nan
nan
nan
nan
nan
nan
nan
nan
nan
-23.4883
-22.2456
-23.7777
-22.2456
-22.6492
-23.6607
-23.6477
-23.9017
-23.0834
-24.1761
-23.7292
-24.3845
-24.0452
-23.9248
-24.1324
-24.0917
-23.1821
-24.0826
-23.0106
-23.5688
-24.2176
-23.1491
-23.9421
-22.7273
-24.2701
-22.7273
-23.9463
-24.0826
-24.0483
-22.5954
-23.8005
-23.045
-23.6264
-24.2412
-24.1118
-24.1375
nan
nan
nan
nan
-24.313
-23.2057
-24.0107
-22.7827
-24.2784
-22.7827
-24.0105
-24.4508
-23.7876
-23.2403
-23.9823
-24.1968
-24.2456
-24.2456
nan
nan
nan
nan
nan
nan
nan
nan
nan
nan
nan
nan
nan
nan
nan
nan
-23.7777
-23.8665
-23.4997
-23.7777
-23.7163
-22.6739
-23.6477
-23.6607
-23.8283
-22.7457
-24.2997
-24.4962
-24.0163
-23.9914
-24.2177
-24.2177
-23.2093
-22.7457
-24.0216
-24.2188
-23.9421
-23.9421
-23.8796
-24.0109
-24.1577
-23.5262
nan
nan
nan
nan
nan
nan
nan
nan
nan
nan
-24.1872
-24.1872
-24.2851
-23.8004
nan
nan
nan
nan
nan
nan
nan
-23.819
-23.7874
-22.5954
-24.0459
-24.1674
-24.1192
-23.4347
-23.8446
-23.9699
nan
nan
nan
nan
nan
nan
nan
nan
nan
nan
-23.1699
-24.4782
-24.0287
nan
nan
nan
nan
nan
nan
-24.2652
-23.994
nan
nan
nan
nan
nan
nan
nan
-24.2167
-22.7275
-24.1776
-24.0463
-23.5762
-23.9458
-24.0935
-24.2697
-22.7275
-23.1491
-23.182
-24.1395
-23.7288
-24.1912
-24.3907
-23.9179
-24.1912
-23.944
nan
nan
nan
nan
nan
nan
nan
nan
nan
nan
-24.0075
-23.6111
-24.2735
-24.1275
-23.2035
-23.9918
-23.9918
-22.781
-22.781
-24.3096
-23.417
-24.0155
-24.2652
-24.2749
-23.2389
-24.0239
-22.9822
-24.1532
-23.76
nan
nan
nan
nan
nan
nan
nan
nan
nan
nan
-24.036
-23.8681
-23.1239
-24.0705
-24.1326
-23.5239
-22.6747
-23.6648
-23.9965
-24.1694
-24.2161
-23.8985
-24.3189
nan
nan
nan
nan
nan
nan
nan
nan
nan
-23.8147
-24.0995
-23.4093
-23.9503
-24.1468
nan
nan
nan
nan
nan
nan
nan
nan
nan
nan
-23.9568
-24.1055
-23.8223
-24.048
-23.015
-23.7794
-23.7703
-22.568
-23.7616
-24.0072
-24.2439
-24.048
-22.568
-22.763
-22.763
-24.2993
-23.9923
-24.2192
-23.582
-24.1187
-23.1892
-24.2632
-24.0917
-23.8844
-24.1203
-23.0953
-22.6747
-24.1203
-24.2395
-24.0442
-23.7656
-24.0166
-23.753
-22.5627
-22.5627
-23.7753
-23.0097
-24.0042
-23.2691
-23.6186
-22.4081
-22.8271
-22.4081
-23.5948
-23.7178
-23.9832
-23.755
-23.7178
-23.3133
-23.6135
-23.8648
-23.9599
-23.7087
-23.7905
-23.2321
-23.7687
-23.6864
-23.8407
-22.8683
-23.9231
-23.659
-23.8345
-22.9771
-23.7584
-24.0442
-23.9962
-23.2815
-23.9041
-24.0514
-23.9041
-22.4315
-22.4315
-23.6014
-23.5818
-24.2284
-23.9582
-24.2765
-24.1898
-24.0589
-24.1003
-24.0089
-22.7931
-22.3867
-23.5649
-23.8482
-23.7952
-23.9561
-23.6255
-23.2305
-23.8482
-22.3867
-23.5464
-22.8224
-23.7948
-23.8828
-23.8828
-23.6203
-22.9192
-23.958
-22.5077
-24.1103
-23.693
-24.0501
-23.3479
-22.5077
-23.6894
-23.9282
-24.167
-23.9785
-23.6911
-23.9785
-22.9485
-23.7432
-23.7388
-23.8988
-23.6005
-23.9231
-23.9231
-22.8406
-22.7385
-23.16
-22.7385
-23.9578
-24.1507
-24.4035
-23.1948
-24.2036
-24.2036
-23.7429
-23.9339
-23.7076
-23.6573
-23.7076
-22.6227
-23.7076
-23.8159
-23.4268
-23.4333
-22.1929
-22.1929
-23.7765
-23.6001
-23.0444
-23.6001
-22.5954
-23.5921
-23.5921
-23.8404
-23.8828
-33.1808
-33.1808
nan
-31.7945
-31.958
-33.2767
nan
nan
nan
nan
nan
nan
nan
nan
nan
-31.7945
nan
nan
-30.5144
-32.8341
-31.4138
-31.124
-31.0155
-30.3417
-29.8335
nan
-24.103
-23.3425
-23.8969
-23.9494
-23.6842
-23.7349
-24.0496
-22.4997
-22.4997
-22.9106
-23.6915
-23.6855
-23.9308
-24.1645
-23.978
-23.7248
-23.978
-22.9416
-23.7533
-23.8401
-23.8401
-23.8401
-23.4812
-23.5743
-23.5269
-22.3403
-22.7457
-22.3403
-23.5596
-22.7743
-23.7593
-23.926
-23.7938
-23.7938
-23.1903
-23.9807
-24.1938
-23.9997
-23.7117
-23.7494
nan
nan
nan
nan
nan
nan
nan
nan
nan
nan
nan
-32.2336
nan
nan
nan
nan
nan
nan
nan
nan
-26.7261
-26.2991
-26.8213
-25.3323
-27.6813
-26.2644
-26.6505
-26.0906
-26.5641
-27.0126
-25.3323
-24.2497
-23.849
nan
nan
nan
nan
nan
nan
nan
-24.1177
-23.0659
-22.6461
-23.9758
-23.7126
-22.9359
-24.119
-22.5275
-22.5275
-23.7124
-23.9564
-22.967
-23.9997
-23.3827
-23.7626
-23.9124
-24.0615
nan
nan
nan
nan
nan
nan
nan
nan
nan
nan
nan
nan
nan
nan
nan
nan
nan
nan
nan
nan
nan
nan
nan
nan
nan
nan
nan
nan
nan
nan
-23.9162
-22.2573
-23.6691
-22.6548
-23.091
-23.6729
-23.85
-23.6691
-22.2573
-23.6729
-23.8424
-23.4658
-24.1659
-23.8424
-23.9648
-24.1199
-23.8266
-22.6533
-23.8948
-24.358
-24.1285
-23.5075
-23.7287
-23.7914
-22.6858
-23.8881
-23.7914
-23.7914
-23.5285
nan
nan
-26.9168
-26.1648
-25.3323
-25.3323
-25.3323
-27.4649
-25.3323
-23.499
-23.9167
-24.2027
-24.0544
-22.6461
-23.092
-24.1245
-23.8516
-24.3199
-24.0926
-23.8467
-24.1245
-23.8486
-23.0746
-22.6533
-23.9004
-23.1117
-24.1618
-24.1285
-23.8794
-24.0389
-24.2186
-23.9428
nan
nan
nan
nan
nan
nan
nan
nan
nan
nan
nan
nan
nan
-24.1897
-24.3926
-23.7269
-23.9402
-24.1377
-24.2056
-23.1446
-24.2593
-24.1715
-23.9371
-22.7228
-22.7228
-23.9009
-24.1897
-23.1758
-23.5821
-24.0873
-24.1338
-23.104
-23.8991
-24.167
-23.6904
-22.6845
-23.1415
-24.1338
-23.931
-22.6845
-23.9051
-24.0739
-24.3274
-24.2055
-23.7478
-24.2324
-23.5928
-24.0604
-22.7466
-23.1682
-23.9709
-23.2027
-24.1693
-24.2186
-24.4204
-23.9641
-24.2872
-22.7466
-24.1939
-24.1096
-23.6861
-23.6861
-23.9527
-22.8939
-23.7753
-23.2347
-24.1268
nan
nan
nan
nan
nan
nan
-23.7561
-22.5655
-24.1527
-22.5655
-24.0211
-22.9778
-23.9558
-24.1019
-23.4197
-23.0099
-23.7541
-24.0009
-24.0425
-24.2375
-24.0425
-23.774
-23.7668
-23.8186
nan
-23.9794
-24.1168
-24.0078
-23.4787
-23.0171
-22.6014
-23.7982
-22.6014
-23.7995
-24.0612
-24.1819
-24.0788
-24.0788
-23.8046
-24.279
-24.133
-23.8609
-23.0501
-23.8232
-24.0435
-23.9853
-23.4419
-23.2029
-24.3106
-23.2391
-24.2393
-23.9845
-24.4395
-24.1838
-22.7786
-22.7786
-24.0041
-24.1099
-24.1343
-24.237
-24.0058
-24.277
-23.6065
nan
nan
nan
nan
nan
nan
nan
nan
nan
nan
-23.7955
-24.2393
nan
nan
nan
nan
nan
nan
nan
nan
nan
nan
nan
nan
nan
nan
-23.9591
-23.9591
-23.9172
-24.1449
-23.6919
-23.6485
nan
nan
nan
nan
nan
nan
nan
nan
nan
nan
-22.9504
nan
-23.9909
-23.7273
-24.1273
-23.4048
-22.5402
-23.9237
-22.5402
-24.0742
-23.7815
nan
nan
nan
nan
nan
nan
nan
nan
nan
nan
nan
nan
nan
nan
nan
nan
-23.6795
-22.469
-22.8825
-23.9004
-24.0618
-22.9154
-24.013
-23.6812
-23.3067
-22.469
-23.6402
-23.8521
nan
nan
nan
nan
nan
nan
nan
nan
nan
-22.9807
-23.9771
-24.017
-23.7304
-24.2125
-24.017
-23.7292
-23.7508
-23.4467
-23.9583
-24.1086
-23.832
-23.7749
-24.1576
-24.0351
-22.5839
-23.0278
-23.796
-24.0742
-24.0364
-24.2755
-23.7905
-24.0742
-22.5839
-22.9961
-23.7849
nan
nan
nan
nan
nan
nan
nan
nan
nan
nan
nan
nan
nan
nan
nan
nan
nan
nan
nan
nan
-23.4092
-23.2371
-23.2371
-23.6136
-23.6136
-23.2371
-22.3924
-23.906
-22.3924
-22.8515
-23.6136
-24.2708
-24.2708
-24.2708
-23.1384
-24.2708
-24.2708
-23.7047
-24.1102
-24.1102
-24.3729
-22.8711
-23.3013
-24.1194
nan
nan
nan
nan
nan
nan
nan
nan
nan
nan
-24.4733
-24.2665
-24.0575
-24.2665
-22.1102
-23.032
-23.8002
-23.8002
-23.5201
-24.2082
-23.9121
-24.2071
-24.1683
-24.2957
-23.7164
-22.8711
-24.0451
-24.5352
-23.9065
-24.324
-24.324
-24.3182
-23.3306
nan
nan
nan
nan
nan
nan
nan
nan
nan
nan
-24.0773
-23.1429
-24.1015
-23.9003
-24.315
-23.9192
-23.6871
-24.1015
-24.0002
-24.1347
-23.9901
-23.919
-22.6912
-24.2023
-22.6912
-23.1109
-24.1792
-23.4082
-22.5852
-23.7092
-23.5413
-22.8481
-23.8002
-22.9103
-23.2796
-23.4385
-23.2772
-23.2772
-22.522
-23.3073
-22.4497
-24.1865
-24.1336
-23.9376
-22.7215
-24.3849
-23.1433
-23.1754
-24.1688
-23.9391
-24.0895
-24.0355
-22.7215
-24.1865
-23.7224
-24.2096
-23.5726
-24.2686
nan
nan
nan
nan
nan
nan
nan
nan
nan
nan
nan
nan
nan
nan
nan
nan
nan
nan
nan
nan
nan
nan
nan
nan
-23.6616
-23.8439
-23.0657
-23.5329
-24.2382
-23.1452
-24.0453
-24.199
-23.925
-22.7233
-23.1848
-24.2282
-24.2054
-22.7233
-23.9665
-23.5394
-23.9214
-23.925
-22.0842
-22.6611
-22.6611
-22.6611
-22.5604
-22.6611
-21.683
-22.3791
-22.3791
-22.3931
-20.967
-20.967
-21.2595
-22.5604
-22.3931
nan
nan
nan
nan
nan
nan
-23.765
-22.2309
-23.6439
-23.6439
-23.9104
-22.2309
-22.6213
-23.4736
-23.6889
-22.652
-23.765
-23.765
-23.8391
-23.5253
-23.6616
nan
nan
nan
nan
nan
nan
nan
nan
nan
nan
-23.9766
-23.944
-24.4311
-24.2054
-22.087
-22.3931
-22.087
nan
nan
nan
nan
nan
nan
nan
nan
nan
-23.9884
-24.3629
nan
-24.399
-22.4492
-22.2397
-22.9055
-22.8614
-22.2397
nan
nan
-22.4492
-23.0456
-22.9173
-24.4705
-22.6782
-22.8614
nan
nan
nan
nan
nan
nan
nan
nan
nan
nan
nan
nan
-24.277
-24.0465
-23.7885
-23.8372
nan
nan
nan
nan
nan
nan
nan
nan
nan
nan
-23.7532
-24.039
-23.7026
-23.3433
-23.032
-23.8798
-23.3433
-24.0578
-23.9038
-23.9593
-23.6951
-22.9212
-24.1105
-22.5102
-22.5102
-23.7064
-23.7447
-23.9442
-24.1778
-22.9534
-23.6973
-23.7475
-23.9907
-23.9907
nan
nan
nan
nan
nan
nan
nan
nan
nan
nan
nan
nan
nan
nan
nan
nan
nan
nan
nan
-24.0859
-24.1846
-23.7206
-24.3834
-23.9097
-24.1652
-24.0321
-23.5668
-24.2048
-23.9346
-24.2636
-22.7184
-24.1328
-23.1732
-24.1846
-23.1396
-22.7184
-23.9349
-23.8403
-24.0978
-24.0465
-21.9682
-22.5061
-22.7393
-22.6149
-21.9063
-22.1643
-22.7393
-22.5738
-22.5738
-23.7532
-22.9918
-24.1079
-22.7611
-22.7611
-22.2102
nan
nan
nan
nan
nan
nan
nan
nan
nan
nan
nan
nan
nan
nan
-56.1481
nan
-24.0192
-23.806
-23.8054
-22.6125
-23.0321
-22.6125
-24.0763
-23.4882
-23.8111
-24.0141
-23.8748
-24.161
-24.2097
nan
nan
nan
nan
nan
nan
nan
nan
nan
nan
-22.5768
-22.6711
-21.2005
-21.2005
-22.1643
-22.6112
-22.6112
-23.8303
-23.4859
-23.142
-23.6613
-22.2102
-24.161
-23.3315
-22.9038
-24.1116
-24.2804
-24.2017
-24.266
-24.4311
-24.161
-22.9038
-23.6945
-23.7985
-23.3997
-24.0397
-23.3529
nan
-23.8046
-24.0889
-24.2878
-24.0514
-24.0889
-23.054
-23.9646
-24.3152
-24.1224
-24.5248
-23.962
-24.3152
-23.3659
-24.0068
nan
nan
nan
nan
nan
-23.9436
-23.3918
-23.7743
-24.1016
-23.7343
-24.1529
-22.5487
-23.7708
-24.0098
-22.9962
-23.7701
-24.2314
-23.7261
-24.0363
-23.9929
-22.9678
-22.5487
-24.0363
-23.7354
-22.2869
-22.2869
-22.7143
-23.4143
-23.7542
-23.543
-23.7542
-23.7542
-23.6775
-23.4455
-23.7354
-23.903
-22.6818
-23.5618
-24.0943
-23.9435
-23.7417
-23.75
-22.5514
-23.7697
-22.9969
-23.9903
-24.2245
-24.0321
-24.1455
-22.9644
-22.5514
-23.7464
-24.0321
nan
nan
nan
nan
nan
-24.379
-25.1279
-25.9479
-25.8489
-25.1279
-25.2467
-24.5769
-25.7438
-24.2614
-24.2614
-25.5328
-24.6899
-23.3834
-24.0972
-23.9334
-23.9334
-24.1611
-23.7357
-22.5571
-22.9743
-23.7357
-25.6661
-26.0226
-26.2018
nan
nan
nan
nan
nan
nan
nan
nan
nan
nan
-23.9094
-23.654
-22.2408
-22.6406
-23.4832
-23.763
-23.5041
-23.86
-23.763
-23.763
-23.7021
-23.654
-22.2408
-23.8423
-23.0766
-23.666
-23.666
-22.6707
nan
-24.2674
-24.0822
-24.2297
-23.9582
-23.9464
-22.7398
-23.9464
-22.7398
-23.9769
-24.2372
-24.4447
-23.201
-24.2256
-23.9967
-23.9526
-24.2256
nan
nan
nan
nan
nan
nan
nan
-23.1604
-22.3273
-21.9328
-22.3074
-23.2161
-23.4659
-22.8692
-23.5732
-23.5732
-23.5732
-23.1038
-23.2018
-23.4793
-21.9328
-23.4659
-23.4073
-23.2067
-23.2379
-22.8826
nan
nan
nan
nan
nan
nan
nan
nan
nan
nan
nan
nan
nan
nan
nan
nan
nan
nan
nan
nan
nan
nan
nan
nan
nan
nan
nan
nan
nan
-25.8363
-22.5571
-24.0521
-23.8541
-24.1051
-22.998
-24.2799
-24.0521
-23.7949
-24.2799
-26.2349
-25.868
nan
nan
nan
nan
-22.482
-21.69
-21.0012
-22.511
-22.482
-22.0087
-22.482
-21.7379
-22.0087
-22.3119
-21.0012
-22.5267
-22.4539
-21.9914
-22.5267
-22.4539
-21.9914
-22.4585
nan
nan
nan
nan
nan
nan
nan
nan
nan
nan
nan
nan
nan
nan
nan
nan
nan
nan
nan
nan
nan
nan
nan
nan
nan
nan
nan
nan
nan
-20.8795
-21.3729
-22.045
-22.1315
-22.1315
-21.4881
-22.045
-22.045
-20.6517
-21.0469
-24.0736
-24.1614
-23.5489
-24.0293
-23.9821
-23.7172
-24.1284
-22.9426
-22.5307
-22.5307
-23.7108
-23.9529
-22.9705
-24.0005
-24.0005
-24.0707
-23.7695
-23.3799
-23.923
-24.1918
-23.7187
-23.7537
nan
nan
nan
nan
nan
nan
nan
nan
nan
nan
-23.4417
-23.8578
-23.1008
-23.6903
-23.9168
-23.6903
-23.6868
-22.6777
-23.4269
-22.2535
-22.2535
-22.6498
-23.3605
-23.7435
-23.7435
-23.6432
-23.7435
-23.5043
-21.6453
-21.4367
-22.2067
-22.1597
-22.1597
-22.2067
-22.1597
-21.6453
-24.1798
-24.1798
-22.7189
-22.7189
-24.122
-24.3734
-23.9304
-23.9334
-23.14
-23.7194
-23.9353
-24.2585
-23.1733
-24.2073
-23.2207
-23.983
-24.2101
-24.2101
-24.409
-23.7734
-23.9798
-24.156
-23.2223
-23.6272
-23.7961
-23.9549
-23.7686
-22.7621
-24.2996
-24.2196
-23.9866
-24.0901
-23.6071
-24.1248
-24.2574
-24.43
-23.9562
-23.5482
-22.7941
-23.8522
-23.8522
-22.3902
-22.3902
-23.5728
-24.0125
-23.8882
-23.8021
-23.8882
-22.8261
-23.8882
-23.6443
-22.256
-22.6707
-22.256
-22.5888
-22.6707
-22.6147
-22.6147
-22.3422
-21.8297
-22.3773
-22.6308
-21.1216
-22.3013
-21.1216
-21.951
-22.6308
nan
nan
nan
nan
nan
nan
nan
nan
nan
nan
nan
nan
nan
nan
-23.1846
-24.2286
-24.1749
-23.2187
-24.2286
-23.9855
-22.7621
nan
nan
nan
nan
nan
nan
nan
-21.951
-21.951
nan
nan
nan
nan
nan
nan
nan
nan
nan
nan
-24.2408
-24.7438
-25.4642
-24.7438
-25.6561
-25.0809
-23.6349
-25.6561
-23.9417
-24.8134
-28.2722
-25.2014
-27.993
-27.9385
-27.9385
-23.2767
-23.2767
nan
nan
nan
nan
nan
nan
nan
nan
nan
-26.0932
-26.0932
-26.0932
-23.8688
-23.3769
-23.8195
-23.3769
-23.1502
-23.2767
-23.8688
-25.6224
-23.7485
nan
nan
nan
nan
nan
nan
nan
nan
nan
nan
nan
nan
nan
nan
nan
nan
nan
nan
nan
nan
nan
nan
nan
nan
nan
nan
nan
nan
nan
nan
nan
nan
nan
nan
-27.6423
-27.6423
nan
-26.1095
-25.4682
-24.6164
-29.4299
nan
nan
nan
nan
nan
nan
nan
nan
nan
-25.3532
-24.0906
-25.5873
-26.0136
-26.1675
-26.0495
-25.5873
nan
nan
nan
nan
nan
nan
nan
nan
nan
nan
nan
nan
-24.2272
-24.1706
-23.4064
-24.0209
nan
-22.4549
-22.4549
-23.5467
-23.6874
-22.8936
-22.8936
-23.5452
-23.5452
-23.5456
-23.5456
-23.3955
-24.2272
nan
nan
nan
nan
nan
nan
nan
nan
nan
-23.9581
-23.9581
-24.1508
-23.7029
-23.6411
-22.9118
-23.9253
nan
-23.5744
-23.0118
-23.8485
-23.5716
-23.7637
-23.5744
-23.5716
-22.1976
-22.5846
-23.4482
-22.1976
-23.7488
-23.8247
-23.7488
-23.6815
-23.4906
-23.7488
-22.6293
nan
nan
nan
nan
nan
nan
nan
nan
nan
nan
-24.6164
nan
nan
nan
nan
nan
nan
nan
-23.8258
-24.2827
-24.0824
-24.048
-24.0824
-23.0558
-23.8025
-22.6074
-23.8104
-22.6074
-23.024
-24.0699
-23.8692
-24.1419
-23.9952
-23.8075
-24.192
-23.4519
nan
nan
nan
nan
nan
nan
nan
-23.3103
-24.2272
nan
nan
nan
nan
nan
nan
nan
nan
nan
nan
nan
nan
nan
-22.8782
-23.6853
-24.0261
-23.6516
-22.4692
-22.4692
-23.6836
-23.312
-23.8624
-23.9109
-24.0796
-23.5045
-24.2363
-24.113
-23.0721
-23.8485
-24.0401
-24.1908
-22.6551
-22.6551
-23.9125
-24.3541
-24.1152
-23.8696
-23.8664
-23.1044
-23.8652
-24.1557
-24.1557
-23.7992
-23.4336
nan
nan
nan
nan
nan
nan
nan
nan
nan
nan
nan
nan
nan
nan
nan
nan
nan
nan
-23.9423
-24.3771
-23.7394
-24.1614
-24.1614
-24.1229
nan
nan
nan
-24.1396
-24.1833
-23.8878
-24.16
-23.3474
-24.3165
-24.519
-23.5624
-24.0372
-24.2087
-23.9389
-24.1696
-24.081
-22.7105
-23.163
-23.8981
-23.5252
-23.7646
-23.7646
-22.3118
-22.3118
-23.961
-23.7355
-23.4805
-23.7038
-23.7992
-22.7381
-23.5614
-23.7992
-23.6743
-23.1908
-23.9638
-24.0435
-24.1815
-24.2313
-24.0422
-22.7292
-22.7292
-23.9576
-23.56
-24.2168
-23.1511
-24.1371
-24.3813
-22.8862
-23.3142
-24.1491
-24.1371
-24.2817
-22.8862
-24.3375
-24.3165
-23.7127
-23.9354
-22.7177
-23.1386
-22.7177
-24.2589
-24.1282
-23.1704
-24.377
-24.1766
-24.1766
-23.9155
nan
nan
nan
nan
nan
nan
nan
nan
nan
nan
nan
nan
nan
nan
nan
nan
nan
nan
nan
nan
nan
nan
nan
nan
nan
nan
nan
nan
nan
nan
nan
nan
nan
nan
nan
nan
nan
nan
nan
nan
-24.1783
-23.8016
-22.6112
-23.8254
-23.0641
-24.0718
-24.1075
-23.976
-24.1296
-23.4313
-23.8526
nan
nan
-24.1075
-23.8227
-24.309
-23.8529
nan
nan
nan
nan
nan
nan
nan
-23.8541
-23.5067
-23.8541
-23.8541
-23.7606
-23.5343
-22.791
-23.6012
nan
nan
nan
nan
nan
nan
nan
nan
nan
nan
-24.0581
-23.0287
-22.6112
nan
nan
nan
nan
nan
nan
nan
nan
-23.5829
-23.934
-23.7708
-23.8129
-23.9895
-22.7625
-23.8129
-22.3575
-22.3575
-23.1955
nan
nan
nan
nan
nan
nan
-23.6768
-23.6768
-24.2047
-23.39
-23.6684
-22.4561
-24.2047
-23.813
-22.4561
-23.2847
-24.2047
nan
nan
nan
nan
nan
nan
nan
nan
nan
nan
nan
nan
nan
nan
nan
-23.8153
-22.3682
-22.3682
-23.5738
-23.8153
-22.7785
-23.9325
-23.213
-23.989
nan
nan
nan
nan
nan
nan
-23.988
-23.4608
nan
nan
nan
nan
nan
nan
nan
nan
nan
nan
nan
nan
nan
nan
nan
nan
nan
nan
nan
nan
nan
nan
nan
nan
nan
nan
nan
nan
nan
nan
nan
-23.7184
-23.9635
-22.971
-24.0051
-24.1984
-23.7499
-24.0051
nan
nan
nan
nan
nan
-23.8732
-23.8732
-23.5163
-23.5964
-23.8048
-22.8093
-23.8732
-23.5818
-23.7659
nan
nan
nan
nan
nan
nan
nan
nan
nan
nan
-23.0486
-24.0838
-23.8056
-24.0481
-24.2849
-24.0838
-23.8085
-24.1352
-23.8631
-23.7991
-23.0172
-23.7962
-22.6024
-22.6024
-24.0597
-24.1805
nan
nan
nan
nan
nan
nan
nan
nan
nan
nan
-22.6268
-22.2278
-22.2278
-23.6337
-23.8798
-23.1333
-23.5787
-23.6337
-23.7862
-23.3167
nan
nan
nan
nan
nan
nan
nan
nan
nan
nan
-22.9816
-24.2679
-22.9816
-23.4627
-24.2741
-24.2362
-24.4077
-23.7546
-24.2362
-24.5175
-22.5307
-22.9405
-22.5307
-23.717
-24.122
-23.7174
-24.0663
-23.386
-23.916
-23.7693
-23.9815
-24.281
-24.0147
-23.6096
-24.1015
-24.3131
-24.1232
-24.2406
-22.7831
-22.7831
-23.2444
-23.7955
-24.1826
-23.2081
-24.0146
-24.2365
nan
nan
nan
nan
nan
nan
nan
nan
nan
nan
-23.4041
-23.6303
-22.6375
-23.6784
-23.6784
-23.2902
-23.6784
-23.4717
nan
nan
nan
-24.2255
-24.4141
-23.4219
nan
nan
nan
nan
nan
nan
nan
-24.4141
-24.1223
-24.7097
-24.1998
-24.2876
-24.4425
-24.0012
-24.2365
-24.1413
-22.9764
-22.561
-23.9405
-23.7502
-24.0465
-23.786
-22.561
-23.0108
-24.0069
-23.7616
-24.2408
-23.7629
-24.0465
-24.0116
-24.0941
-23.8059
-23.3953
-22.77
-23.9842
-24.3163
-24.0381
-23.2311
-23.9552
-24.1117
-22.77
-23.9842
-24.2553
-23.5532
-23.9848
-24.2938
-23.1809
-23.1115
-23.8457
-23.9745
-24.1107
-24.1102
-24.0285
-24.068
-23.878
-22.6615
-22.6615
-24.1492
-23.0824
-23.8707
-24.3099
-24.1107
-23.6445
ITEM: TIMESTEP
100
ITEM: NUMBER OF ATOMS
2950
ITEM: BOX BOUNDS pp pp pp
-9.9443605754517804e+01 9.9443605754517804e+01
-1.0000000000000000e+02 1.0000000000000000e+02
-1.0000000000000000e+02 1.0000000000000000e+02
ITEM: ATOMS c_my_entropy
-25.5132
-26.1013
-24.893
-24.4892
-23.9944
-24.4781
-23.9944
-24.4781
-26.1013
-26.1013
-24.4781
-25.7572
-25.3125
nan
nan
nan
nan
nan
nan
nan
nan
nan
nan
nan
nan
nan
nan
nan
nan
nan
nan
nan
nan
nan
nan
nan
nan
nan
nan
nan
nan
nan
nan
-25.0779
-25.3813
-25.0883
-25.7572
-25.3813
nan
nan
nan
nan
nan
nan
-23.6605
-23.1956
-24.0353
-24.669
-24.0353
-24.5698
-24.2323
-24.5698
-24.9182
-23.1956
-23.624
nan
nan
nan
nan
nan
nan
nan
nan
nan
nan
nan
nan
nan
nan
nan
nan
nan
nan
nan
nan
nan
nan
nan
nan
nan
nan
nan
nan
nan
nan
nan
nan
-24.4643
-24.4392
-25.4895
-25.3483
-25.3483
-23.9664
-56.7161
-57.3189
-61.7312
-63.2692
-53.409
-57.056
-25.1633
-24.5698
-61.0443
-56.2369
-52.3952
-56.6837
-53.5717
-59.7254
-55.09
-59.802
-52.9874
-54.5169
-60.0233
-61.1059
-24.1874
-24.9182
-25.1633
-25.1633
-24.6645
nan
nan
nan
nan
nan
nan
nan
nan
nan
nan
nan
nan
nan
nan
nan
nan
nan
-26.0493
nan
nan
nan
nan
nan
nan
nan
nan
-24.9034
-25.7201
-26.0827
-25.7201
-25.2769
-26.0827
-23.9664
-26.0827
-24.8457
-26.0493
-25.6599
-25.6599
-26.0493
-25.2287
-24.419
-23.9264
-23.9264
nan
nan
-24.4392
-24.4392
-25.0121
-25.0441
nan
-58.8036
-57.7222
nan
nan
-45.6795
-49.4302
-54.0267
nan
-45.0138
-54.0284
nan
-55.7567
nan
-52.2622
nan
nan
-64.469
-68.2727
-63.9336
-66.5938
-70.0305
-62.0092
-65.8034
-64.6316
-63.7116
-65.0431
nan
-60.9237
-63.5159
-63.2628
-65.2068
-64.7349
-65.637
nan
nan
nan
nan
nan
nan
nan
nan
nan
-62.1671
-63.676
-59.2424
-60.2172
-61.6969
-60.6104
-62.6594
-65.5488
-55.5036
-54.4842
-52.7729
-54.4875
-56.7331
-55.9115
-48.1929
-50.248
-44.9388
-60.8763
-62.9042
-67.9228
-60.2275
-64.0233
-63.2207
-59.6393
-60.0643
-58.7073
-57.9887
-52.0585
-55.5821
-59.7837
-63.5299
-50.493
-50.8068
-47.2363
-42.9169
-43.94
nan
nan
nan
nan
nan
nan
nan
nan
nan
-26.269
-25.1908
-26.269
-26.269
-25.1297
-25.9825
-24.2067
-24.719
-25.9825
-24.7062
-25.7738
-24.7062
-24.7062
-25.5649
-25.3864
-24.2067
nan
nan
nan
nan
nan
nan
-25.3195
-24.9987
-24.9908
-24.3994
-25.4583
-24.3994
-24.3994
-25.3195
nan
nan
nan
nan
nan
nan
nan
-55.0018
-51.7134
-52.7334
-52.5879
nan
-52.8602
nan
nan
nan
nan
-58.233
nan
nan
nan
nan
nan
nan
nan
nan
nan
-57.0527
-55.782
-60.6562
nan
-25.9587
nan
-65.9917
nan
nan
nan
nan
-25.3644
-25.0751
-25.3644
-25.0973
-24.4751
-24.4751
-25.4967
-24.4778
-25.7556
-26.0706
-26.0706
-25.3003
-23.9886
-23.9886
-24.4751
-25.7556
-24.889
-26.0706
-25.7738
-25.2301
-26.0902
-24.8559
-25.6979
-25.6979
-25.2653
-26.0902
-25.0339
-23.9611
-25.3667
-24.4435
-25.4984
-24.4435
-26.0902
-24.4562
-24.4435
-23.9611
-25.0484
-25.3667
-25.5747
-24.8565
-24.528
-24.528
-25.5437
-24.528
-24.0373
-25.1319
-25.4135
-25.4135
-25.1316
-26.1448
-24.9218
-26.1448
-25.8139
-25.365
-26.1448
-24.0373
-24.5318
-25.8139
nan
nan
nan
nan
nan
nan
nan
nan
nan
nan
-23.8862
-24.8281
-25.8626
-25.7036
-25.8626
-25.5747
-24.3808
-23.8862
-24.3639
-24.3639
-25.072
-24.7301
-25.4914
-25.2633
-25.4914
-24.9078
-25.931
-24.6844
-25.1613
-26.1171
-24.6738
-24.1722
-24.1722
-26.1171
-24.6844
-24.6844
nan
-25.0094
-26.3756
-26.072
-25.1796
-26.072
-25.2737
-24.7929
-24.7872
-25.3477
-24.2826
-25.8449
-25.431
-25.8449
-24.2826
-24.7872
-24.7872
-25.6453
nan
nan
nan
nan
nan
nan
nan
nan
nan
nan
nan
nan
nan
nan
nan
nan
nan
nan
nan
nan
nan
nan
nan
-25.4035
-25.6047
-25.6047
-26.3756
-26.3756
nan
nan
nan
nan
nan
nan
nan
nan
nan
nan
nan
nan
nan
nan
nan
nan
nan
nan
nan
nan
nan
nan
nan
nan
nan
nan
nan
nan
nan
nan
nan
nan
nan
nan
nan
nan
-24.134
-23.6741
-25.2568
-23.6741
-24.1573
-25.7765
-24.9236
-25.7765
-24.5943
-26.349
-25.4102
-25.8206
-26.0472
-25.3152
-24.7617
-26.349
-24.7617
-25.5855
-24.7502
-25.1645
-26.0472
-24.77
-24.7617
-24.2615
-26.349
-24.2615
-25.2514
-25.7901
-24.7396
-24.2412
-24.7396
-24.7396
-25.2218
-26.416
-26.1206
-26.416
nan
nan
nan
nan
-26.416
-24.8399
-25.318
-24.3237
-26.1206
-24.3237
-24.83
-25.8833
-25.4787
-24.83
-25.3759
-24.83
-25.6814
-25.8833
nan
nan
nan
nan
nan
nan
nan
nan
nan
nan
nan
nan
nan
nan
nan
nan
-25.1054
-25.1175
-24.7318
-25.1054
-24.134
-24.134
-25.3415
-25.7765
-25.7765
-23.9833
-24.85
-25.552
-25.2043
-24.9594
-25.552
-25.3216
-24.4683
-23.9833
-24.4683
-25.9657
-25.7064
-24.9401
-25.7064
-25.7882
-25.9657
-24.9734
nan
nan
nan
nan
nan
nan
nan
nan
nan
nan
-25.6195
-25.8206
-25.7901
-25.3793
nan
nan
nan
nan
nan
nan
nan
-25.2794
-25.2355
-24.2412
-26.0281
-26.3448
-26.3448
-25.1558
-26.0281
-26.3448
nan
nan
nan
nan
nan
nan
nan
nan
nan
nan
-24.4881
-25.8469
-25.4502
nan
nan
nan
nan
nan
nan
-25.6389
-25.2981
nan
nan
nan
nan
nan
nan
nan
-26.0144
-24.2345
-26.3113
-26.0144
-25.1361
-25.2197
-26.3113
-26.3113
-24.2345
-24.7422
-24.734
-24.734
-25.3917
-25.5954
-25.7955
-25.2836
-25.7955
-24.734
nan
nan
nan
nan
nan
nan
nan
nan
nan
nan
-26.0644
-25.1932
-26.3473
-26.3473
-24.7921
-26.0644
-25.2637
-24.2751
-24.2751
-26.3473
-25.1301
-24.7808
-25.8469
-24.7808
-24.7808
-26.0053
-24.7279
-26.3184
-25.2128
nan
nan
nan
nan
nan
nan
nan
nan
nan
nan
-26.4497
-25.4579
-24.9229
-24.9229
-26.2231
-25.2955
-24.409
-25.4112
-26.2231
-26.2231
-26.4497
-25.4074
-25.9587
nan
nan
-53.956
nan
nan
nan
nan
nan
nan
nan
nan
nan
nan
-25.9169
-26.2311
-25.0286
-26.2311
-26.2311
nan
nan
nan
nan
nan
nan
nan
nan
nan
nan
-26.3184
-26.3184
-26.0053
-25.573
-24.7174
-25.2675
-25.3593
-24.2202
-24.7174
-24.7174
-25.7748
-25.7748
-24.2202
-24.4168
-24.4168
-26.4678
-25.4209
-26.2371
-25.3069
-26.4678
-24.9304
-26.2371
-26.2371
-24.9229
-25.7616
-24.9302
-24.409
nan
-25.4976
-25.4976
-25.2332
-25.9169
-25.4594
-24.1192
-24.1192
-25.1825
-24.6086
-24.6086
-24.2989
-25.5274
-23.8178
-24.3054
-23.8178
-24.3054
-25.2062
-25.2062
-24.3054
-24.9763
-25.0783
-25.0998
-25.9206
-25.9206
-25.9206
-25.9206
-24.6729
-25.3379
-25.811
-26.1311
-24.5153
-25.5422
-25.1003
-24.5153
-24.621
-24.6086
-25.6351
-26.1311
-24.9383
-25.811
-26.1311
-25.3563
-24.0301
-24.0301
-24.5153
-25.1698
-26.0504
-25.2526
-26.3513
-26.3513
-26.0504
-26.3513
-26.1065
-24.4947
-23.9988
-24.4788
-25.7652
-26.1065
-26.1065
-25.7652
-24.9165
-25.3201
-23.9988
-25.0933
-24.4788
-24.4788
-25.5153
-25.3771
-25.0622
-24.5125
-25.7949
-24.0209
-26.1125
-25.3415
-26.1125
-24.9131
-24.0209
-24.5085
-24.5085
-25.3994
-25.3994
-25.1277
-25.5291
-24.5085
-25.1083
-25.7949
-26.1125
-25.136
-25.4082
-25.4082
-24.5266
-24.2621
-24.7726
-24.2621
-24.7622
-24.7622
-25.8215
-24.7622
-25.8215
-25.6187
-25.4151
-25.3073
-25.2952
-24.1742
-25.1449
-24.1742
-25.1449
-25.1496
-24.7697
-24.1742
-23.7192
-23.7192
-25.8365
-25.8365
-24.6555
-25.8365
-24.2053
-24.9731
-25.3833
-25.8365
-25.3771
-33.7828
-33.7828
nan
-33.0843
-31.8529
-33.0843
nan
nan
nan
nan
nan
nan
nan
nan
nan
-33.0843
nan
nan
-31.2348
-34.1328
-32.2318
-31.8377
-32.0304
-31.5222
-33.1127
nan
-26.1456
-24.9511
-26.1456
-25.8247
-25.3722
-25.8247
-26.1456
-24.0422
-24.0422
-24.5377
-24.528
-25.1495
-24.528
-25.4165
-25.4165
-25.1102
-25.5536
-24.528
-24.4987
-25.4048
-25.5427
-25.4048
-25.105
-25.088
-24.4987
-24.0162
-24.5147
-24.0162
-25.7769
-24.4987
-26.1389
-26.1389
-25.3382
-25.7769
-24.92
-26.1389
-25.3942
-25.3942
-25.1301
-25.0974
nan
nan
nan
nan
nan
nan
nan
nan
nan
nan
nan
nan
nan
nan
nan
nan
nan
nan
nan
nan
nan
nan
nan
nan
-27.1204
nan
-27.6416
nan
nan
-27.6416
nan
-26.2207
-25.158
nan
nan
nan
nan
nan
nan
nan
-25.9606
-24.7009
-24.1862
-25.7848
-25.3328
-24.505
-26.0982
-24.0147
-24.0147
-24.5014
-24.5014
-24.5014
-25.5274
-24.9094
-25.7848
-26.0982
-26.0982
nan
nan
nan
nan
nan
nan
nan
nan
nan
nan
nan
nan
nan
nan
nan
nan
nan
nan
nan
nan
nan
nan
nan
nan
nan
nan
nan
nan
nan
nan
-26.0326
-23.8907
-25.6055
-24.3827
-24.8057
-26.0326
-26.0326
-25.1749
-23.8907
-26.0326
-25.8988
-25.0968
-26.1822
-25.115
-26.1822
-26.1822
-25.8988
-24.1435
-25.3261
-25.7095
-25.492
-24.3661
-24.3661
-25.4563
-24.3661
-25.3217
-25.3105
-25.3105
-24.9658
nan
nan
nan
nan
nan
nan
nan
nan
nan
-25.1113
-25.9606
-26.2207
-26.2207
-24.1862
-24.6889
-25.7723
-25.3844
-25.7723
-24.6889
-24.6889
-25.5743
-25.2115
-24.6502
-24.1435
-24.6354
-24.6354
-24.6354
-25.7095
-25.1355
-25.9904
-25.6267
-25.3043
nan
nan
nan
nan
nan
nan
nan
nan
nan
nan
nan
nan
nan
-25.5718
-25.7745
-25.3725
-24.7083
-24.7083
-25.9904
-24.721
-26.288
-26.288
-25.1957
-24.2114
-24.2114
-25.2444
-25.7745
-24.7083
-25.1293
-26.288
-25.6889
-24.8706
-25.3597
-26.1729
-25.3505
-24.3619
-24.8652
-25.8843
-25.3998
-24.3619
-24.8652
-24.8652
-25.8843
-26.398
-25.4248
-26.0606
-25.1809
-26.0606
-24.2696
-24.7841
-24.7711
-24.7711
-24.7711
-25.8306
-25.8306
-25.2616
-26.3608
-24.2696
-26.3608
-26.3608
-25.2186
-24.9804
-25.9478
-24.469
-25.9209
-24.8789
-25.9478
nan
nan
nan
nan
nan
nan
-25.1423
-24.1576
-26.2375
-24.1576
-25.9294
-24.6588
-26.2375
-26.2375
-25.0657
-24.6518
-24.6518
-24.6518
-25.71
-25.71
-25.5103
-25.2077
-25.2995
-25.9294
nan
-26.1729
-26.1729
-26.398
-25.2643
-24.8031
-24.2899
-24.7956
-24.2899
-25.2877
-26.0871
-26.3944
-25.648
-25.8494
-25.4343
-25.8494
-26.3944
-26.0871
-24.7956
-25.3508
-24.7956
-26.3944
-25.1893
-24.8968
-26.426
-24.8926
-25.9241
-25.4365
-25.9241
-24.8926
-24.3834