LAMMPS data file generated by OpenBabel
10 atoms
9 bonds
14 angles
14 dihedrals
0 impropers
5 atom types
4 bond types
6 angle types
9 dihedral types
0 improper types
  -3.05905    4.56249 xlo xhi
  -3.05905    4.56249 ylo yhi
  -3.05905    4.56249 zlo zhi



Masses

1 10.811 # B
2 12.0107 # C
3 18.9984 # F
4 6.941 # Li
5 15.9994 # O


Atoms

1       1    3    0.00000    1.25858    0.11403    0.63044 #   F
2       1    1    0.00000    2.68201   -0.00785    0.35650 #   B
3       1    5   -0.82000    3.12837    1.09585   -0.50079 #   O
4       1    2    0.00000    3.60593    0.55270   -1.62879 #   C
5       1    2    0.00000    3.49686   -0.87921   -1.56340 #   C
6       1    5   -0.82000    2.94979   -1.23914   -0.39430 #   O
7       1    5   -0.82000    3.84446   -1.66717   -2.42815 #   O
8       1    5   -0.82000    4.06249    1.19750   -2.55905 #   O
9       1    3    0.00000    3.43150   -0.00823    1.60278 #   F
10      2    4    0.00000    0.29273   -0.35473   -1.59423 #  Li


Bonds

1       2    1    2 #  F: B
2       3    3    2 #  O: B
3       4    3    4 #  O: C
4       1    4    5 #  C: C
5       4    6    5 #  O: C
6       4    7    5 #  O: C
7       4    8    4 #  O: C
8       2    9    2 #  F: B
9       3    6    2 #  O: B


Angles

1       3    1    2    3 #  F: B: O
2       2    9    2    1 #  F: B: F
3       3    1    2    6 #  F: B: O
4       3    9    2    3 #  F: B: O
5       4    6    2    3 #  O: B: O
6       3    9    2    6 #  F: B: O
7       1    4    3    2 #  C: O: B
8       5    3    4    5 #  O: C: C
9       6    8    4    3 #  O: C: O
10      5    8    4    5 #  O: C: C
11      5    6    5    4 #  O: C: C
12      5    7    5    4 #  O: C: C
13      6    7    5    6 #  O: C: O
14      1    5    6    2 #  C: O: B


Dihedrals

1       3    1    2    3    4 #  F: B: O: C
2       3    9    2    3    4 #  F: B: O: C
3       5    6    2    3    4 #  O: B: O: C
4       2    5    3    4    2 #  C: O: C: B
5       9    8    3    4    2 #  O: O: C: B
6       6    6    4    5    3 #  O: C: C: O
7       6    7    4    5    3 #  O: C: C: O
8       6    6    4    5    8 #  O: C: C: O
9       6    7    4    5    8 #  O: C: C: O
10      1    4    5    6    2 #  C: C: O: B
11      7    7    5    6    2 #  O: C: O: B
12      4    1    6    2    5 #  F: O: B: C
13      8    3    6    2    5 #  O: O: B: C
14      4    9    6    2    5 #  F: O: B: C