LAMMPS data file
# 100 EMC molecules
6 atom types
6 bond types
9 angle types
9 dihedral types
1 improper types

15 atoms
14 bonds
23 angles
25 dihedrals
1 impropers

-0.5000000 57.000000 xlo xhi
-0.5000000 57.000000 ylo yhi
-0.5000000 57.000000 zlo zhi

Masses

1 12.010 # c EMC
2 16.000 # os EMC
3 16.000 # o EMC
4 12.010 # c3 EMC
5 1.008 # h1 EMC
6 1.008 # hc EMC

Pair Coeffs #lj/coil

1 0.1050000 3.750 # EC c #OPLS-AA Charifson 1990
2 0.1700000 3.000 # EC os #OPLS-AA Charifson 1990
3 0.2100000 2.960 # EC o #OPLS-AA Charifson 1990
4 0.0660000 3.500 # EC c3 #OPLS-AA Charifson 1990
5 0.0150000 2.420 # EC h1 #OPLS-AA Charifson 1990
6 0.0150000 2.420 # EC hc #OPLS-AA Charifson 1990

Bond Coeffs #harmonic

1 214.0000 1.327 # harmonic EMC c os
2 570.0000 1.229 # harmonic EMC c o
3 320.0000 1.410 # harmonic EMC c3 os
4 268.0000 1.529 # harmonic EMC c3 c3
5 340.0000 1.090 # harmonic EMC c3 h1
6 340.0000 1.090 # harmonic EMC c3 hc

Angle Coeffs #harmonic

1 83.00000 116.90 # harmonic EMC c os c3
2 92.60000 111.55 # harmonic EMC os c os
3 83.00000 123.40 # harmonic EMC o c os
4 50.00000 109.50 # harmonic EMC c3 c3 os
5 35.00000 109.50 # harmonic EMC h1 c3 os
6 37.50000 110.70 # harmonic EMC c3 c3 hc
7 37.50000 110.70 # harmonic EMC c3 c3 h1
8 33.00000 107.80 # harmonic EMC h1 c3 h1
9 33.00000 107.80 # harmonic EMC hc c3 hc

Dihedral Coeffs #harmonic

1 2.700000 -1 2 # harm EMC os c os c3
2 3.200000 -1 2 # harm EMC o c os c3
3 1.400000 -1 1 # harm EMC o c os c3
4 0.3830000 1 3 # harm EMC c3 c3 os c
5 0.8000000 -1 1 # harm EMC c3 c3 os c
6 0.3830000 1 3 # harm EMC h1 c3 os c
7 0.0 1 3 # harm EMC hc c3 c3 os
8 0.2500000 1 1 # harm EMC hc c3 c3 os
9 0.1560000 1 3 # harm EMC h1 c3 c3 hc

Improper Coeffs #cvff

1 10.50000 -1 2 # cvff EMC o os c os

Atoms

1 1 1 1.0244 -11.3015 10.713 -2.2545 # c C1 EMC 1
2 1 2 -0.5687 -10.6025 9.564 -2.4405 # os O1 EMC 1
3 1 2 -0.3841 -11.8245 11.305 -3.3575 # os O2 EMC 1
4 1 3 -0.6241 -11.4665 11.185 -1.1625 # o O3 EMC 1
5 1 4 0.5401 -9.6155 9.467 -3.5035 # c3 C2 EMC 1
6 1 4 -0.053 -12.2335 10.519 -4.4935 # c3 C3 EMC 1
7 1 4 -0.296 -8.3535 8.862 -2.9195 # c3 C4 EMC 1
8 1 5 -0.065 -9.4245 10.467 -3.9145 # h1 H1 EMC 1
9 1 5 -0.065 -10.0245 8.83 -4.2985 # h1 H2 EMC 1
10 1 5 0.0851 -13.1515 10.986 -4.8635 # h1 H3 EMC 1
11 1 5 0.0851 -12.4365 9.481 -4.2045 # h1 H4 EMC 1
12 1 5 0.0851 -11.4675 10.549 -5.2785 # h1 H5 EMC 1
13 1 6 0.0787 -7.9365 9.507 -2.1355 # hc H6 EMC 1
14 1 6 0.0787 -7.6025 8.741 -3.7125 # hc H7 EMC 1
15 1 6 0.0787 -8.5625 7.875 -2.4855 # hc H8 EMC 1

Bonds

1 1 1 2 # EMC 1 C1 O1
2 1 1 3 # EMC 1 C1 O2
3 2 1 4 # EMC 1 C1 O3
4 3 5 2 # EMC 1 C2 O1
5 3 6 3 # EMC 1 C3 O2
6 4 5 7 # EMC 1 C2 C4
7 5 5 8 # EMC 1 C2 H1
8 5 5 9 # EMC 1 C2 H2
9 5 6 10 # EMC 1 C3 H3
10 5 6 11 # EMC 1 C3 H4
11 5 6 12 # EMC 1 C3 H5
12 6 7 13 # EMC 1 C4 H6
13 6 7 14 # EMC 1 C4 H7
14 6 7 15 # EMC 1 C4 H8

Angles

1 1 1 2 5 # EMC 1 C1 O1 C2
2 1 1 3 6 # EMC 1 C1 O2 C3
3 2 2 1 3 # EMC 1 O1 C1 O2
4 3 2 1 4 # EMC 1 O1 C1 O3
5 4 7 5 2 # EMC 1 C4 C2 O1
6 5 8 5 2 # EMC 1 H1 C2 O1
7 5 9 5 2 # EMC 1 H2 C2 O1
8 3 3 1 4 # EMC 1 O2 C1 O3
9 5 10 6 3 # EMC 1 H3 C3 O2
10 5 11 6 3 # EMC 1 H4 C3 O2
11 5 12 6 3 # EMC 1 H5 C3 O2
12 6 5 7 13 # EMC 1 C2 C4 H6
13 6 5 7 14 # EMC 1 C2 C4 H7
14 6 5 7 15 # EMC 1 C2 C4 H8
15 7 7 5 8 # EMC 1 C4 C2 H1
16 7 7 5 9 # EMC 1 C4 C2 H2
17 8 8 5 9 # EMC 1 H1 C2 H2
18 8 10 6 11 # EMC 1 H3 C3 H4
19 8 10 6 12 # EMC 1 H3 C3 H5
20 8 11 6 12 # EMC 1 H4 C3 H5
21 9 13 7 14 # EMC 1 H6 C4 H7
22 9 13 7 15 # EMC 1 H6 C4 H8
23 9 14 7 15 # EMC 1 H7 C4 H8

Dihedrals

1 1 3 1 2 5 # EMC 1 O2 C1 O1 C2
2 2 4 1 2 5 # EMC 1 O3 C1 O1 C2
3 3 4 1 2 5 # EMC 1 O3 C1 O1 C2
4 1 2 1 3 6 # EMC 1 O1 C1 O2 C3
5 2 4 1 3 6 # EMC 1 O3 C1 O2 C3
6 3 4 1 3 6 # EMC 1 O3 C1 O2 C3
7 4 7 5 2 1 # EMC 1 C4 C2 O1 C1
8 5 7 5 2 1 # EMC 1 C4 C2 O1 C1
9 6 8 5 2 1 # EMC 1 H1 C2 O1 C1
10 6 9 5 2 1 # EMC 1 H2 C2 O1 C1
11 6 10 6 3 1 # EMC 1 H3 C3 O2 C1
12 6 11 6 3 1 # EMC 1 H4 C3 O2 C1
13 6 12 6 3 1 # EMC 1 H5 C3 O2 C1
14 7 2 5 7 13 # EMC 1 O1 C2 C4 H6
15 8 2 5 7 13 # EMC 1 O1 C2 C4 H6
16 9 8 5 7 13 # EMC 1 H1 C2 C4 H6
17 9 9 5 7 13 # EMC 1 H2 C2 C4 H6
18 7 2 5 7 14 # EMC 1 O1 C2 C4 H7
19 8 2 5 7 14 # EMC 1 O1 C2 C4 H7
20 9 8 5 7 14 # EMC 1 H1 C2 C4 H7
21 9 9 5 7 14 # EMC 1 H2 C2 C4 H7
22 7 2 5 7 15 # EMC 1 O1 C2 C4 H8
23 8 2 5 7 15 # EMC 1 O1 C2 C4 H8
24 9 8 5 7 15 # EMC 1 H1 C2 C4 H8
25 9 9 5 7 15 # EMC 1 H2 C2 C4 H8

Impropers

1 1 4 3 1 2 # EMC 1 O3 O2 C1 O1